/*--------------------------------*- C++ -*----------------------------------*\
| =========                 |                                                 |
| \\      /  F ield         | OpenFOAM: The Open Source CFD Toolbox           |
|  \\    /   O peration     | Version:  2306                                  |
|   \\  /    A nd           | Website:  www.openfoam.com                      |
|    \\/     M anipulation  |                                                 |
\*---------------------------------------------------------------------------*/
FoamFile
{
    version     2.0;
    format      ascii;
    arch        "LSB;label=32;scalar=64";
    class       volTensorField;
    location    "0";
    object      grad(U);
}
// * * * * * * * * * * * * * * * * * * * * * * * * * * * * * * * * * * * * * //

dimensions      [0 0 -1 0 0 0 0];

internalField   nonuniform List<vector> 
27
(
( -0.112873 -0.0962237 -0.133771 -0.29828 -0.344634 -0.161951 0.0667012 -0.796464 -0.252089 )
( -0.23227 -0.22367 -0.163493 -0.209507 -0.347711 -0.0345642 0.429169 -0.575313 -0.0944651 )
( -0.119397 -0.127446 -0.0297219 -0.071933 -0.305429 -0.0167598 0.708462 -0.893331 -0.143463 )
( -0.0241001 -0.0993012 -0.00638438 -0.242139 -0.596409 -0.196245 0.909034 0.831742 0.0703396 )
( -0.00592275 -0.184465 -0.0183018 -0.0582419 -0.569588 -0.0775611 0.948961 0.943733 0.0703457 )
( 0.0181774 -0.0851638 -0.0119174 0.209153 -0.504994 -0.05903 0.93736 1.04953 0.0766535 )
( 0.0710237 -0.0694025 -0.015088 0.0561413 -0.251775 -0.0342932 0.886252 1.13195 0.0776537 )
( 0.219022 -0.132255 -0.0262788 0.151265 -0.221876 -0.0429969 0.825417 1.19653 0.0784275 )
( 0.147999 -0.0628525 -0.0111907 0.281086 -0.199565 -0.0422702 0.685935 1.2351 0.0906131 )
( 0.249595 0.124927 0.0238522 0.544052 1.28357 0.160477 0.667322 0.482229 -0.118275 )
( 0.409491 -0.320537 -0.0548675 0.310285 1.17133 0.130247 0.778953 0.571225 0.0279513 )
( 0.159896 -0.445465 -0.0787197 0.156965 1.63743 0.203357 0.892636 0.707159 0.0609926 )
( 0.0158275 0.0126896 -0.00637831 0.577412 1.33201 0.133498 0.951467 0.838872 0.0561355 )
( 0.0224038 0.0333195 -0.0119878 0.338006 1.20226 0.0953315 0.969536 0.940038 0.058823 )
( 0.00657625 0.0206298 -0.00560954 0.186626 1.62344 0.175046 0.947875 1.01697 0.0707085 )
( 0.0101888 -0.00481913 -0.0143142 0.03336 0.0484344 -0.0269792 0.884112 1.07283 0.0903992 )
( 0.018705 -0.0291081 -0.0133193 0.0277213 0.0309256 -0.0349151 0.8117 1.13666 0.110009 )
( 0.00851625 -0.024289 0.000994875 0.0296613 -0.0139932 -0.0283106 0.661174 1.20413 0.123133 )
( -0.0012425 -0.00722862 0.0124543 -0.014135 0.0120091 0.0124587 0.600621 1.27869 0.133814 )
( -0.00695625 0.001259 0.0157738 -0.0189238 0.0211026 -0.00369255 0.349784 1.14654 0.122416 )
( -0.00571375 0.00848763 0.00331947 -0.0166938 0.00437962 -0.00704389 0.184174 1.60049 0.204456 )
( -0.00603125 0.00186488 -0.00369692 -0.0253487 -0.00581062 0.0124291 0.0424337 0.00713012 -0.0142041 )
( -0.009515 -0.0063705 -0.00372879 -0.025495 -0.0041495 0.00449698 0.020575 -0.00369461 -0.0115227 )
( -0.00348375 -0.00823537 -3.18625e-05 -0.0223088 -0.0080245 0.00311027 0.010515 -0.0325598 -0.00594501 )
( -0.00138875 -0.0055675 0.00452222 -0.0112137 -0.0178197 -2.96113e-05 -0.00214 -0.059124 0.0127455 )
( -0.00391625 -0.000954875 0.00645499 -0.00657125 -0.0252521 0.00818954 -0.0137175 -0.0598724 0.0315819 )
( -0.0025275 0.00461262 0.00193276 -0.005615 -0.0124041 0.0101542 -0.0247613 -0.0309707 0.0325198 )
)
;
boundaryField
{
    lowerWall
    {
        type            zeroGradient;
    }
    upperWall
    {
        type            zeroGradient;
    }
    inlet
    {
        type            zeroGradient;
    }
    outlet
    {
        type            zeroGradient;
    }
    front
    {
        type            zeroGradient;
    }
    back
    {
        type            zeroGradient;
    }
}


// ************************************************************************* //
