/*--------------------------------*- C++ -*----------------------------------*\
| =========                 |                                                 |
| \\      /  F ield         | OpenFOAM: The Open Source CFD Toolbox           |
|  \\    /   O peration     | Version:  v2312                                 |
|   \\  /    A nd           | Website:  www.openfoam.com                      |
|    \\/     M anipulation  |                                                 |
\*---------------------------------------------------------------------------*/
FoamFile
{
    version     2.0;
    format      ascii;
    class       volScalarField;
    location    "0";
    object      Q;
}
// * * * * * * * * * * * * * * * * * * * * * * * * * * * * * * * * * * * * * //

dimensions      [0 0 -2 0 0 0 0];

internalField   uniform 0
148000
(
0.0969811
0.112927
0.231354
0.0630526
-0.124143
-0.194062
-0.140226
-0.067447
-0.0354962
-0.0277558
-0.0242108
-0.0200176
-0.0169915
-0.0149452
-0.0128266
-0.0115401
-0.01202
-0.0145645
-0.0195365
-0.0274308
-0.0390273
-0.0552177
-0.0767233
-0.103827
-0.135721
-0.169693
-0.20069
-0.221467
-0.224354
-0.203038
0.0562707
0.358198
0.421136
0.21043
-0.0251537
-0.147833
-0.128369
-0.066828
-0.0348313
-0.0264181
-0.0217665
-0.0148703
-0.00822302
-0.0012302
0.00833848
0.0189192
0.0294642
0.0404938
0.0525792
0.0663118
0.0820407
0.0995215
0.118132
0.136831
0.153512
0.165507
0.169409
0.162539
0.142443
0.110282
-0.253515
0.0552222
-0.0825319
-0.275066
-0.289223
-0.223561
-0.137299
-0.0682082
-0.0362214
-0.0269957
-0.0219669
-0.0155274
-0.00972557
-0.00377202
0.00419463
0.0126839
0.020884
0.0291834
0.0380777
0.0480441
0.0592979
0.0718156
0.0852529
0.098958
0.111772
0.122406
0.127705
0.125909
0.109297
0.0813631
0.0680554
-0.114373
-0.544975
-0.587756
-0.440421
-0.283356
-0.156399
-0.0721001
-0.0356185
-0.0254787
-0.0202883
-0.0137837
-0.00787219
-0.00162542
0.00665204
0.0154534
0.0242162
0.0334775
0.0438336
0.0558486
0.0699801
0.0864033
0.104914
0.124904
0.144948
0.165539
0.182231
0.201731
0.198649
0.176763
0.225061
-0.0840764
-0.386783
-0.511578
-0.446339
-0.313609
-0.169814
-0.0710387
-0.0321238
-0.0227888
-0.0184049
-0.0125591
-0.00722181
-0.00153032
0.00582714
0.0134367
0.0210463
0.0291423
0.038329
0.0492402
0.0623408
0.0779416
0.0960983
0.116246
0.136455
0.156861
0.164585
0.195125
0.190781
0.254433
0.00873802
0.0174809
-0.111987
-0.309229
-0.375679
-0.30072
-0.16503
-0.0673544
-0.0296767
-0.0206833
-0.0163431
-0.0108171
-0.00591115
-0.000678746
0.00589078
0.0125392
0.0192881
0.026676
0.0353249
0.0459165
0.0590609
0.0753132
0.0954924
0.120065
0.148465
0.184241
0.184697
0.230465
-0.0132563
0.0395483
0.012921
0.00843662
-0.0292497
-0.0990405
-0.150426
-0.168813
-0.121014
-0.0575276
-0.0261938
-0.0176007
-0.0134161
-0.00865764
-0.00452745
-9.29384e-05
0.00531483
0.0106389
0.0161087
0.0222653
0.0297018
0.0390651
0.0510477
0.0662121
0.0859903
0.110743
0.147427
0.212547
0.272318
0.629383
-0.0262288
1.03577
0.00187018
0.00493179
-0.120019
-0.21373
-0.226257
-0.194351
-0.120404
-0.0517526
-0.0219037
-0.014477
-0.0107522
-0.00660155
-0.00314621
0.000363204
0.00434865
0.00813049
0.0120605
0.0166498
0.0224161
0.0299163
0.0398294
0.0524731
0.0698386
0.0871247
0.122362
0.142695
0.257734
0.984222
0.765669
13.4203
-0.00428176
0.0373245
-0.071526
-0.244315
-0.292648
-0.232759
-0.125724
-0.0473235
-0.0179186
-0.0111689
-0.00784248
-0.00444158
-0.0018197
0.000560552
0.00286529
0.00486193
0.00696522
0.00958709
0.0131037
0.0179122
0.0245416
0.0332763
0.0458456
0.0558414
0.0850759
0.0067507
0.105909
-0.622915
-1.35224
22.0953
-0.00204615
0.0168827
-0.0816869
-0.216455
-0.254918
-0.206859
-0.110557
-0.0387806
-0.0130262
-0.00748332
-0.00475927
-0.00225923
-0.000639995
0.000385106
0.000843116
0.000877335
0.000904227
0.00119336
0.00190767
0.00320662
0.0052962
0.00845468
0.0130162
0.0185361
0.0292523
0.0113169
0.0951779
-0.574142
-0.955036
2.94256
0.483429
-0.0185917
-0.000979803
0.0124479
0.0069252
-0.0592587
-0.0738145
-0.0422241
-0.0238223
-0.0228275
-0.022889
-0.0209255
-0.0190929
-0.0189638
-0.0209229
-0.0237186
-0.0264134
-0.0290972
-0.0325616
-0.038024
-0.0467155
-0.0595817
-0.0773577
-0.10004
-0.126662
-0.154713
-0.179469
-0.194437
-0.192478
-0.169481
0.431541
0.0562153
0.0883984
0.0317108
0.0660163
0.0218217
-0.0226525
-0.0250923
-0.0177497
-0.0179513
-0.0170163
-0.0130284
-0.0086512
-0.0055882
-0.003567
-0.000439741
0.00519138
0.0138402
0.0255493
0.040142
0.0574698
0.0776141
0.100419
0.125446
0.151586
0.176792
0.197253
0.208561
0.205326
0.188094
-0.234455
-0.0782947
-0.0434496
-0.0154243
-0.0257662
-0.0449992
-0.0411219
-0.0264871
-0.0189915
-0.0192815
-0.0180164
-0.0142092
-0.0103848
-0.00811291
-0.00709823
-0.00518587
-0.00129731
0.00497838
0.0136791
0.0244385
0.0372049
0.0521859
0.0693646
0.0891041
0.111319
0.135738
0.159241
0.178228
0.182737
0.170807
0.650988
-0.0786943
-0.0877071
-0.0251779
-0.088105
-0.106612
-0.0710731
-0.0321462
-0.0176966
-0.017192
-0.0160612
-0.0122998
-0.00837436
-0.00599853
-0.00466726
-0.00210029
0.00264154
0.00997198
0.0200215
0.032789
0.0482781
0.0669188
0.0892331
0.115784
0.146995
0.184325
0.223997
0.272636
0.302146
0.308589
0.1357
-0.161042
-0.187437
-0.0557435
-0.0824631
-0.114199
-0.0820834
-0.0339342
-0.01483
-0.0143106
-0.0141903
-0.0112033
-0.00775695
-0.0058113
-0.00481201
-0.00256149
0.0016499
0.00823501
0.0172813
0.0287536
0.0429851
0.060571
0.0823223
0.109447
0.142018
0.182585
0.219506
0.289673
0.33306
0.438511
-0.00750916
0.0851591
0.0618959
0.0995354
0.00606473
-0.0756254
-0.0709035
-0.0320777
-0.0139378
-0.0129001
-0.0124494
-0.0095413
-0.00641291
-0.00476911
-0.00387769
-0.00165322
0.00238878
0.00862938
0.0172555
0.0283731
0.0424226
0.0604282
0.0840796
0.115875
0.158223
0.218888
0.259109
0.366994
0.193195
0.317634
0.00611847
-0.0189318
-0.0139448
0.0680056
0.0593251
0.00857247
-0.0157662
-0.0115099
-0.00740004
-0.00956242
-0.00973617
-0.00744859
-0.00501447
-0.00379972
-0.00307405
-0.00107266
0.00254845
0.008064
0.0156521
0.0255282
0.0382853
0.0549703
0.0780226
0.110042
0.16143
0.254911
0.366509
0.813932
0.272232
1.60771
0.0233648
0.00356821
-0.0465407
0.0366594
0.0298694
-0.0141912
-0.0257919
-0.0122929
-0.00529876
-0.00702303
-0.0072981
-0.00543343
-0.00360902
-0.00276712
-0.00216113
-0.000477638
0.00252926
0.00705839
0.0132494
0.0213685
0.0320929
0.0461819
0.0665189
0.0909626
0.140852
0.193137
0.370798
1.18234
1.14427
14.2516
0.0091735
0.0331645
-0.0234732
0.0287709
-0.00119737
-0.0434574
-0.034783
-0.00914566
-0.00108272
-0.00365704
-0.00456614
-0.00333555
-0.00219326
-0.00173429
-0.00126741
-2.82083e-05
0.00213477
0.00532357
0.00962884
0.0152882
0.0228488
0.0329661
0.0478715
0.064337
0.104689
0.0646112
0.222365
-0.368132
-0.759772
22.3609
0.0109113
0.0376031
-0.0304282
0.0210091
-0.00156382
-0.0344214
-0.021949
0.000753774
0.00477213
0.000250661
-0.00161782
-0.00118927
-0.000772738
-0.000682869
-0.000441574
0.000206736
0.00128547
0.00278196
0.00470215
0.00715105
0.0103245
0.0146482
0.0203784
0.028995
0.0411803
0.0474177
0.119019
-0.323447
-0.51121
2.82388
0.449676
-0.0277564
-0.0501325
-0.0027446
0.0119599
-0.0435102
-0.0638018
-0.0388058
-0.0220736
-0.0209159
-0.0207644
-0.0184699
-0.0163881
-0.0155209
-0.0154542
-0.0158842
-0.0169027
-0.0189999
-0.0226455
-0.0286001
-0.0378348
-0.0512319
-0.0695302
-0.09286
-0.120375
-0.14964
-0.176008
-0.193008
-0.193282
-0.171863
0.650755
-0.00079715
-0.043034
-0.084328
0.00915144
0.0178106
-0.0149494
-0.0220201
-0.0172756
-0.0171244
-0.0153625
-0.0106454
-0.00569006
-0.00138875
0.00326459
0.00960226
0.0176495
0.0272589
0.038905
0.0529488
0.0694211
0.0882329
0.10922
0.131542
0.153684
0.173366
0.186894
0.190353
0.179979
0.155243
0.102532
-0.0904305
0.0809751
0.0602233
0.0104002
-0.0132177
-0.0235772
-0.0220647
-0.0186388
-0.018338
-0.0161066
-0.0116939
-0.00748707
-0.00406566
-0.000468431
0.00433439
0.0103883
0.017569
0.0262147
0.0365651
0.0487265
0.0626549
0.0782886
0.0955917
0.113991
0.132705
0.148423
0.158144
0.153199
0.134237
1.11978
0.0689624
0.0704913
0.0855725
-0.01856
-0.0711906
-0.0556068
-0.0269147
-0.0161445
-0.015709
-0.0141926
-0.00996591
-0.00563444
-0.00197947
0.00191568
0.00717207
0.0139377
0.0220723
0.0321804
0.0445788
0.0594898
0.0773079
0.0981629
0.122198
0.148855
0.179175
0.208856
0.244237
0.25893
0.252464
0.322272
-0.0097582
-0.0532824
-0.0101264
-0.0428867
-0.0781652
-0.0616521
-0.0278339
-0.0136541
-0.0131994
-0.0125458
-0.00901117
-0.00519267
-0.00201621
0.00139647
0.00600494
0.0119381
0.0192188
0.0283181
0.0396637
0.053565
0.0704904
0.0910663
0.115752
0.143701
0.175909
0.200264
0.252352
0.274113
0.359735
0.0212803
0.105481
0.106706
0.0841499
0.0294724
-0.0348998
-0.0492215
-0.0289758
-0.0148366
-0.0126714
-0.0110778
-0.00749136
-0.00404578
-0.00126526
0.00180597
0.00600612
0.0114667
0.0183094
0.0269956
0.0380071
0.0519923
0.0696968
0.0923599
0.121803
0.159106
0.209407
0.232529
0.312176
0.110508
0.198433
0.00091196
-0.0562484
-0.000809991
0.0147998
0.0281197
0.0184309
-0.00456353
-0.00967413
-0.0080323
-0.00938159
-0.00865131
-0.0057357
-0.00297566
-0.000749871
0.00181003
0.00536056
0.00999739
0.0159052
0.0235868
0.0335162
0.0463427
0.0630082
0.0855366
0.115527
0.161794
0.243545
0.332406
0.735527
0.150191
1.35082
0.0253035
-0.042976
-0.0226602
-0.00245945
0.0079642
-0.00285373
-0.0159815
-0.0112795
-0.00632773
-0.00717099
-0.00652411
-0.00407583
-0.00194314
-0.000303138
0.00164373
0.00437858
0.0079802
0.0126745
0.0188943
0.0271026
0.0380073
0.0522815
0.0724801
0.095731
0.141131
0.182447
0.333968
1.1023
0.991115
13.9201
0.046515
0.0872727
0.0112042
0.0143018
0.00419837
-0.0323893
-0.0315914
-0.0107013
-0.00264553
-0.00395121
-0.00405607
-0.0023859
-0.000995124
-1.6824e-05
0.00119825
0.00291603
0.00520898
0.00830772
0.0125201
0.0182115
0.0259603
0.0363966
0.0515008
0.0676105
0.104961
0.0568742
0.190764
-0.43812
-0.926961
22.5085
0.0569923
0.0743877
-0.016803
0.00832878
0.00298676
-0.0230989
-0.0189657
-0.0022515
0.00201861
-0.000742946
-0.00156613
-0.000704692
-0.00015173
8.3324e-05
0.000446553
0.00094717
0.00167669
0.002812
0.00446279
0.00680454
0.01008
0.0147485
0.0210201
0.0304279
0.0428437
0.0489165
0.115014
-0.353976
-0.60952
2.89341
0.412625
0.00803112
-0.037916
0.00961896
0.00511901
-0.0428099
-0.0550738
-0.032281
-0.0171466
-0.0161819
-0.0167727
-0.0154149
-0.0140722
-0.0131916
-0.0120782
-0.0110661
-0.0109725
-0.012305
-0.0155477
-0.0212666
-0.0302132
-0.0433166
-0.0614213
-0.0848174
-0.112763
-0.142875
-0.170712
-0.1898
-0.192873
-0.174504
0.829739
0.0894912
-0.0599815
-0.114635
-0.0111703
0.00351299
-0.0135319
-0.0148702
-0.0109191
-0.011667
-0.0109947
-0.00745341
-0.00364388
0.000151665
0.00539366
0.0122554
0.0204047
0.0301016
0.0417056
0.0555516
0.0718484
0.0905784
0.111454
0.133575
0.155364
0.174506
0.187219
0.190012
0.178926
0.153123
0.402498
-0.0742792
0.108546
0.118456
0.0452944
0.0057217
-0.011311
-0.0130974
-0.0119693
-0.0131228
-0.0120125
-0.00861004
-0.00542359
-0.00241827
0.0017494
0.00723438
0.0136425
0.0210072
0.0296773
0.0399724
0.0520099
0.0659378
0.081592
0.098731
0.116825
0.134863
0.149708
0.158497
0.152357
0.132043
0.982602
0.0486307
0.145383
0.17756
0.0490053
-0.0244139
-0.0307975
-0.0160892
-0.00955895
-0.0105952
-0.0101901
-0.00704098
-0.00373973
-0.000502416
0.0039573
0.00983803
0.0168786
0.0252161
0.0353225
0.0477148
0.0626205
0.0804234
0.101327
0.125315
0.151774
0.181386
0.210183
0.244651
0.257597
0.249078
0.286436
0.0456249
-0.0788494
-0.0337827
-0.0062945
-0.0299508
-0.0334502
-0.0162771
-0.00742716
-0.00848866
-0.00885732
-0.00636736
-0.00349009
-0.000614614
0.00337548
0.00864951
0.0149479
0.0224664
0.0316629
0.0430129
0.0570223
0.0741517
0.0948047
0.119444
0.147236
0.179045
0.202743
0.25379
0.273053
0.355054
0.0270959
0.00990575
0.0405009
0.0242586
0.0236239
-0.00771043
-0.0272035
-0.0182043
-0.00876879
-0.00821149
-0.00770152
-0.00519365
-0.00261376
-1.27278e-05
0.00365
0.00849026
0.0143418
0.0214391
0.0302754
0.0414219
0.0555819
0.0735137
0.0964464
0.126056
0.163147
0.212938
0.235789
0.314232
0.108478
0.190624
0.0445107
-0.0307862
-0.0168913
-0.00888288
0.00627001
0.0158246
0.00270166
-0.00294224
-0.00316776
-0.00560226
-0.00589677
-0.00393542
-0.0018539
0.000341433
0.00348991
0.00764567
0.0127051
0.0189258
0.0268074
0.0369216
0.0500467
0.0670683
0.0899209
0.12028
0.16667
0.248078
0.336478
0.73666
0.145946
1.3329
0.000439227
-0.0392403
-0.0129152
0.00262593
0.0030761
-0.00803445
-0.0151324
-0.00749017
-0.00272146
-0.00409633
-0.00430385
-0.00274974
-0.00115855
0.000576692
0.00309219
0.00639626
0.010449
0.0154907
0.0219671
0.0304273
0.041656
0.0563432
0.0768965
0.100752
0.146345
0.188767
0.33979
1.10804
0.982887
13.8103
-0.0587154
0.0927707
0.015627
0.0127185
0.0207265
-0.01943
-0.0238547
-0.00656793
1.40404e-05
-0.00169476
-0.00249483
-0.00157462
-0.000554688
0.000612227
0.00234115
0.00460498
0.00737941
0.0108493
0.0153462
0.0213059
0.0293243
0.0400855
0.0554093
0.0721328
0.10926
0.0629637
0.194642
-0.434624
-0.972053
22.2383
0.0746906
0.159163
0.0130907
-0.00325663
0.00374225
-0.0102325
-0.00943446
0.00101518
0.00339861
0.000493362
-0.000749725
-0.000425144
-7.38755e-05
0.000390867
0.00120567
0.00226114
0.00349425
0.0050078
0.00694359
0.00950428
0.012922
0.0176803
0.0238222
0.0332532
0.0445294
0.0504084
0.113943
-0.381941
-0.675487
2.87761
0.0270155
0.0929666
0.017062
0.00626661
-0.00391797
-0.0339496
-0.0389311
-0.0234911
-0.0130902
-0.0123124
-0.0128502
-0.0118711
-0.0108525
-0.0104516
-0.010368
-0.0104973
-0.0112523
-0.0130943
-0.0165339
-0.0222191
-0.0310621
-0.0439911
-0.0617333
-0.0845943
-0.111908
-0.141336
-0.168525
-0.18692
-0.189432
-0.170943
-0.144824
0.155487
0.027868
-0.0538643
-0.0205671
-0.00325187
-0.00894563
-0.00971561
-0.00736676
-0.00821178
-0.00756294
-0.00433318
-0.000721298
0.00282168
0.00737448
0.0135267
0.0211603
0.0304105
0.0417548
0.0554465
0.0716137
0.090247
0.110948
0.132965
0.154849
0.174218
0.187249
0.190177
0.179174
0.153423
0.00725184
0.0313718
0.140705
0.0640204
0.0185921
0.0072855
-0.00550083
-0.00853943
-0.00741827
-0.0088136
-0.00842505
-0.00558493
-0.00258615
0.000175435
0.00366847
0.00836258
0.0141927
0.0211959
0.0296905
0.0399021
0.0518983
0.0657734
0.0814165
0.0987799
0.117002
0.135314
0.150487
0.159437
0.153597
0.133321
0.611224
0.0523097
0.043019
-0.0307029
0.00208584
0.00850757
-0.00933285
-0.0102827
-0.00631413
-0.00709744
-0.00690758
-0.00418458
-0.00108384
0.00191971
0.00576028
0.0109141
0.0174251
0.0254664
0.0354268
0.0476854
0.0626038
0.0804205
0.101412
0.125579
0.152368
0.182576
0.211818
0.246317
0.258912
0.249865
0.328049
0.0320379
-0.00606724
-0.0883102
-0.0235374
-0.000150134
-0.0112954
-0.00951098
-0.00473046
-0.00561862
-0.00592256
-0.00374304
-0.00105326
0.00156837
0.0049501
0.00955121
0.0153815
0.0226465
0.0317197
0.0430318
0.0571201
0.0743624
0.0952681
0.120367
0.148737
0.181392
0.206115
0.257959
0.277727
0.358533
0.108985
-0.0591953
0.0387376
-0.0143106
0.00528174
0.00456011
-0.0147842
-0.0130086
-0.00609901
-0.00541483
-0.00501016
-0.00291839
-0.000521263
0.00185854
0.00496053
0.00921591
0.0146525
0.021523
0.0303307
0.04153
0.0557777
0.0739525
0.0973606
0.127497
0.165547
0.216546
0.240767
0.320207
0.118496
0.201911
0.0213672
-0.0551153
-0.00793842
-0.00777436
-0.0155771
0.00164755
-4.99371e-05
-0.00255246
-0.00196788
-0.00359902
-0.00386394
-0.00213221
-0.000134564
0.00185677
0.00450024
0.0081353
0.0128408
0.0188934
0.0267715
0.0370009
0.0503201
0.0676836
0.0910898
0.122349
0.170085
0.253116
0.343352
0.742165
0.157905
1.33507
-0.11023
0.0137128
0.00919643
0.0156451
0.0110217
-0.00668655
-0.0110705
-0.00501875
-0.00178311
-0.00271433
-0.00287109
-0.0014502
0.000119077
0.00167531
0.00375224
0.00661523
0.0103724
0.0152903
0.0217898
0.030384
0.0418629
0.0569692
0.0781864
0.103251
0.15057
0.196238
0.35056
1.12144
1.0065
13.7787
-0.182157
-0.0109245
-0.0337068
-0.0281922
0.016389
-0.00375728
-0.0132069
-0.00468493
-0.000397733
-0.00126148
-0.001627
-0.000740043
0.000255817
0.00126031
0.00262997
0.0045163
0.00703926
0.0104145
0.0149462
0.0210395
0.0293057
0.0404686
0.056453
0.0742987
0.112973
0.0711548
0.206277
-0.401077
-0.909062
22.3333
0.0217835
0.0981561
0.0255114
-0.030954
-0.00422448
0.000376486
-0.00332281
-0.000368352
0.00121279
-5.83027e-05
-0.000551412
-0.000147823
0.000218051
0.00058387
0.00111179
0.00183123
0.00284637
0.00427784
0.00623702
0.0089007
0.0125026
0.0175503
0.0241256
0.0342239
0.0463084
0.054758
0.117857
-0.354077
-0.638438
2.90033
-0.0370298
0.0369976
0.0629038
0.0130753
0.00720773
-0.0126436
-0.0230879
-0.0160176
-0.00925647
-0.00866106
-0.00901974
-0.00837499
-0.00775775
-0.00761016
-0.00753242
-0.00761337
-0.00834912
-0.0101908
-0.0136031
-0.0192645
-0.0280108
-0.0406953
-0.0580356
-0.0803919
-0.107083
-0.135897
-0.16256
-0.180789
-0.183627
-0.165924
-0.153231
-0.00535483
0.030129
0.00421784
0.00854901
0.00238507
-0.00771852
-0.00645705
-0.00308239
-0.00373684
-0.00365581
-0.00108317
0.00209062
0.00529975
0.00954385
0.0153729
0.0227508
0.0317574
0.042784
0.056141
0.0720001
0.0903553
0.110861
0.132841
0.154684
0.174045
0.1871
0.190129
0.179492
0.153656
-0.211643
-0.101517
-0.010896
-0.0207984
-0.00228077
0.00147225
-0.00540941
-0.00475843
-0.00251848
-0.00396844
-0.0045464
-0.00250912
0.000114394
0.00261801
0.00587809
0.0103793
0.0160149
0.022802
0.0310678
0.04108
0.0529294
0.0667132
0.0823644
0.0996705
0.118097
0.13662
0.15184
0.160928
0.155003
0.134604
-0.0176869
-0.103535
-0.113033
-0.117005
-0.0286466
0.00312321
-0.0044286
-0.0051748
-0.00210278
-0.00310389
-0.00343956
-0.00127333
0.00147378
0.00418303
0.00777664
0.0127602
0.0190912
0.0269324
0.0367186
0.0488454
0.0636141
0.0813722
0.102458
0.126756
0.153795
0.184432
0.21412
0.248529
0.260856
0.251089
0.415339
0.0132458
0.0674877
-0.0459275
-0.0222126
0.00411665
-0.00129132
-0.00359599
-0.00144383
-0.00250843
-0.00286579
-0.00105715
0.00128638
0.00364849
0.00685089
0.0113374
0.0170488
0.0241825
0.0331562
0.0444236
0.0584604
0.0758553
0.0970659
0.122474
0.151546
0.185112
0.211024
0.263485
0.284077
0.363926
0.0440439
0.00278526
0.0580524
-0.0232643
0.00146333
0.00816483
-0.0067361
-0.0068064
-0.00239725
-0.00224957
-0.0021834
-0.000577269
0.00148839
0.00367122
0.00667444
0.0108547
0.0162342
0.0230414
0.0317977
0.0430248
0.0573936
0.0758867
0.09969
0.130495
0.1696
0.221623
0.24796
0.328695
0.131716
0.21714
0.0228907
0.0172449
0.0602295
0.00940099
-0.0106377
-0.000163148
-0.000114767
-0.000960357
2.39214e-05
-0.0011175
-0.00156399
-0.00025424
0.00149866
0.00338461
0.00597857
0.00958941
0.0142984
0.020357
0.0282598
0.0385985
0.0521736
0.0699441
0.0940783
0.126454
0.175537
0.26027
0.353078
0.750177
0.174812
1.33956
-0.0195029
0.0531947
0.026462
0.00203492
0.00793953
-3.14175e-05
-0.00511111
-0.00251079
-0.000362787
-0.000922408
-0.00111226
-2.86955e-05
0.00134358
0.00285917
0.00495542
0.00784826
0.0116553
0.0166386
0.023233
0.0320009
0.0437847
0.0594324
0.0815041
0.108089
0.157346
0.207261
0.365679
1.14068
1.03753
13.7141
-0.0860283
-0.091819
-0.0453277
-0.0540267
0.00318169
0.00372625
-0.00412427
-0.00182228
0.000202329
-0.00034871
-0.000519641
0.000170248
0.0010291
0.00205625
0.00350824
0.00548203
0.00809968
0.0115791
0.0162394
0.0225344
0.0311217
0.0428231
0.0595944
0.0789869
0.11939
0.0838076
0.222656
-0.357864
-0.840863
22.3679
-0.00145375
0.0858151
0.0292828
-0.0573503
-0.0181643
0.00218712
0.000541644
9.67084e-05
0.00067107
8.09409e-05
-8.54051e-05
0.000200015
0.000498741
0.000958053
0.00163406
0.00249091
0.00363434
0.00518977
0.00728243
0.0101259
0.0139809
0.0194028
0.0264738
0.0375049
0.0502613
0.062592
0.123695
-0.32571
-0.60832
2.93159
-0.00583905
-0.00203369
0.0187202
0.0121896
0.00806939
-0.00229593
-0.00944169
-0.00686172
-0.00430547
-0.0048052
-0.00540785
-0.0050718
-0.00471196
-0.00479132
-0.00503856
-0.0054417
-0.00642709
-0.00844195
-0.0119299
-0.0175461
-0.0261147
-0.0384547
-0.0553355
-0.0770811
-0.10305
-0.131077
-0.157058
-0.174942
-0.177899
-0.16098
-0.0625967
-0.0261492
0.000192369
0.0117728
0.0129219
0.000398042
-0.00534896
-0.00208396
0.000832827
0.000119187
-0.000199074
0.00184979
0.0047359
0.00767785
0.0115678
0.0170009
0.0239414
0.0325428
0.0431984
0.0562221
0.071739
0.0898322
0.110104
0.131848
0.153622
0.172995
0.186271
0.189622
0.179066
0.153458
-0.0631952
-0.0643898
-0.00649855
-0.00211779
0.00213481
-1.59677e-05
-0.00288533
-0.000712182
0.000897425
-0.000412222
-0.00115194
0.000416563
0.00272643
0.00497786
0.00790928
0.0120661
0.017358
0.0238264
0.031855
0.04162
0.0532671
0.0669289
0.082559
0.099935
0.118475
0.137236
0.152704
0.162009
0.15624
0.135836
0.00739098
-0.0369639
0.0226972
-0.0137662
-0.00838234
0.00120573
-0.000932221
-0.00036485
0.00122954
0.000240279
-0.00024838
0.00142191
0.00386564
0.00636101
0.00964679
0.0142975
0.0203343
0.0279389
0.0374604
0.0493287
0.0640038
0.0817868
0.102835
0.127388
0.154938
0.185825
0.215928
0.250646
0.262855
0.252418
0.0902261
0.0438997
0.0891114
0.00190684
-0.0161941
0.000881332
0.00128557
-0.000361343
0.00113941
0.00041858
-1.12732e-05
0.00138742
0.00344612
0.00563302
0.00860255
0.0128071
0.0182713
0.0252146
0.0340671
0.0452233
0.0593003
0.0768181
0.0982704
0.124328
0.154156
0.188577
0.216142
0.269941
0.291518
0.370365
-0.142822
0.00595201
0.0805646
-0.011698
-0.0193354
0.00146359
0.00156774
-0.000303226
0.000995981
0.000529285
0.000207698
0.00148187
0.00337363
0.00543201
0.00822737
0.0121751
0.0173702
0.0240742
0.0327672
0.0440152
0.0585683
0.0773277
0.101709
0.133428
0.173662
0.227243
0.256094
0.338604
0.148103
0.235774
-0.0678359
0.0205279
0.0381872
0.000751401
-0.007328
0.00109616
0.00183289
0.000855225
0.00145573
0.000794657
0.000422796
0.00146391
0.00304998
0.004834
0.00728679
0.0107367
0.0153327
0.0213657
0.0292976
0.0397664
0.0536191
0.0719003
0.0968357
0.130537
0.181577
0.268619
0.364737
0.760213
0.195746
1.34696
0.00942443
0.0413903
0.0214058
0.00294748
0.0124118
0.00920941
0.00210114
0.000274587
0.00075901
0.00047896
0.000444001
0.00130293
0.00252233
0.00396515
0.00596646
0.00876855
0.0125327
0.0175393
0.0242353
0.0332281
0.0454022
0.0617125
0.0848276
0.113224
0.164946
0.220155
0.384252
1.16478
1.07631
13.6443
0.0119715
0.0426469
0.0282072
-0.0103559
-0.0020865
0.00497134
0.00200013
0.000431577
0.000580593
0.000385804
0.000461556
0.00101595
0.00177962
0.00278297
0.00419609
0.00613644
0.00876521
0.0123175
0.0171318
0.0236878
0.0326867
0.0450607
0.0628372
0.0841188
0.126804
0.0987834
0.242763
-0.304308
-0.755011
22.4302
0.000547532
0.0917962
0.0380592
-0.0516292
-0.0255974
-0.00101342
0.00161723
0.000132256
2.5717e-05
0.000130835
0.000334223
0.000544382
0.000796759
0.00127681
0.0019678
0.00284166
0.00403729
0.00569773
0.00795543
0.0110397
0.0152382
0.0211615
0.0289049
0.0411141
0.054905
0.0718261
0.131363
-0.2897
-0.567335
2.97052
0.0544794
0.00736393
-0.0205579
-0.00246884
2.03338e-05
-0.00467737
-0.00393739
-0.00124111
-0.000278549
-0.00119416
-0.00216265
-0.00218234
-0.00200828
-0.00224325
-0.00269506
-0.00331705
-0.00448439
-0.00660343
-0.0101404
-0.0157208
-0.0241037
-0.0361286
-0.0524752
-0.0734569
-0.0985428
-0.12567
-0.150846
-0.168258
-0.171275
-0.155073
0.0526905
-0.0113806
-0.030683
0.0151563
0.0150903
-0.00097353
-0.00257834
0.00143863
0.00369264
0.00317601
0.00276452
0.00445187
0.00706548
0.00974704
0.0132944
0.0183581
0.0249223
0.0330801
0.0432931
0.0558798
0.0709196
0.0885802
0.108546
0.130083
0.151765
0.171098
0.184516
0.188139
0.177995
0.152826
0.0135635
-0.0673215
-0.0507182
-0.0109303
0.000108316
-0.0018784
-0.0015379
0.00115995
0.00287
0.00233389
0.00179411
0.0030264
0.00503681
0.00703862
0.00970915
0.0135476
0.0185173
0.0246936
0.0323719
0.0418384
0.0532577
0.0667373
0.0821949
0.0995889
0.118331
0.137258
0.152977
0.162623
0.157197
0.137032
0.214611
-0.0509437
-0.0128657
-0.00078
-0.00240415
0.00189007
0.00173834
0.00205635
0.00333451
0.002856
0.00242896
0.00376898
0.00595534
0.00824454
0.0112943
0.015668
0.0214077
0.0286945
0.0379525
0.0495963
0.0640378
0.081662
0.102755
0.12758
0.155369
0.186801
0.217654
0.252568
0.26464
0.253854
0.35712
0.0423542
0.021022
-0.00532373
-0.0100547
0.00247222
0.00260941
0.00229423
0.00340237
0.0027451
0.00227763
0.00341279
0.00533117
0.00739045
0.0101533
0.0141135
0.0193671
0.0261268
0.0347698
0.0458506
0.0598823
0.0774576
0.0992691
0.125857
0.156581
0.19235
0.221751
0.276852
0.299877
0.377816
-0.0249335
0.00245138
0.0339998
-0.00304399
-0.00106567
0.00521211
0.0039595
0.00286154
0.00315494
0.00253291
0.00219016
0.00326761
0.00502128
0.00696542
0.00960997
0.0133879
0.0184299
0.025014
0.0336407
0.0448976
0.0595861
0.0786754
0.10362
0.136306
0.178027
0.233344
0.265432
0.350469
0.167657
0.258303
-0.0359618
0.00315374
0.0200802
0.00516658
0.00262086
0.00565681
0.00424488
0.00227683
0.00236608
0.00217146
0.00210146
0.0029946
0.00441772
0.00611301
0.00846833
0.0118208
0.0163365
0.0223201
0.0302869
0.0409061
0.0550555
0.0739409
0.0998599
0.135032
0.188258
0.278088
0.378543
0.772717
0.22185
1.35712
-0.113686
0.0291389
0.0587783
0.0254683
0.0129416
0.0110917
0.00621811
0.00225567
0.00164641
0.00157778
0.00174459
0.00247381
0.00356774
0.00496741
0.00692407
0.00968268
0.0134343
0.018485
0.025306
0.0345303
0.0471397
0.064236
0.0885698
0.119146
0.173895
0.235385
0.406383
1.19412
1.1247
13.5631
-0.0570051
0.00405782
0.00732589
-0.0122623
-0.00999515
0.00138786
0.00356431
0.00150948
0.000810694
0.00100146
0.00130795
0.0017626
0.0024492
0.00346211
0.00488812
0.0068423
0.00951695
0.0131728
0.0181665
0.0250256
0.0345149
0.0476886
0.0666917
0.0902968
0.135835
0.116984
0.267763
-0.238034
-0.647043
22.5131
0.0762839
0.0624412
0.03361
-0.0138544
-0.0161635
-0.00129486
0.0028804
0.000463301
-0.000376482
0.00020419
0.000721627
0.00087894
0.00108104
0.00160895
0.00236301
0.00330235
0.00459046
0.00639078
0.00885417
0.0122358
0.0168601
0.023418
0.0320299
0.045742
0.0609356
0.0836406
0.141596
-0.243533
-0.513263
3.02138
0.146492
0.0418903
-0.00430046
0.00539835
0.00447211
0.00549101
0.00534446
0.00353003
0.00253733
0.00162304
0.000783579
0.000527082
0.000421043
-2.34662e-05
-0.000681175
-0.00152363
-0.0028614
-0.00510919
-0.00872179
-0.0142728
-0.0224705
-0.0341167
-0.0498967
-0.070099
-0.0942272
-0.120262
-0.144443
-0.161219
-0.164181
-0.148795
0.416145
0.0675142
-0.00682337
0.0215403
0.0150872
0.00294812
0.00419494
0.00634342
0.00675328
0.00588297
0.00523943
0.00660164
0.00898643
0.0114601
0.0146701
0.0192943
0.0254126
0.0331291
0.0427987
0.0548112
0.0693418
0.0864248
0.105909
0.127112
0.148513
0.167843
0.181447
0.18555
0.175941
0.151214
0.0443987
0.00626848
-0.0551672
-0.00926629
0.00214097
-0.000383357
0.00260683
0.00476573
0.0054799
0.00498848
0.00426231
0.0051323
0.00692334
0.00876705
0.0111588
0.0146556
0.019272
0.0250887
0.0324213
0.0414877
0.0525002
0.0657025
0.0810759
0.0984237
0.117118
0.136333
0.152434
0.162367
0.157449
0.137598
0.377272
0.0507613
-0.0404671
0.00504531
0.00587359
0.00437307
0.00525942
0.00566643
0.00589434
0.00517669
0.00460203
0.00568245
0.00768046
0.00980644
0.0126161
0.0166684
0.0220829
0.0290403
0.037925
0.0492639
0.0634606
0.0808629
0.10191
0.126783
0.154936
0.187004
0.21846
0.253737
0.26606
0.254734
0.437074
0.0851602
0.0341434
0.034406
0.0196401
0.0088132
0.0054458
0.00550158
0.0054173
0.00465611
0.00422453
0.00515204
0.00690046
0.00882208
0.0113982
0.0151193
0.0201299
0.0266363
0.035052
0.0459675
0.0599237
0.0776186
0.0997335
0.126781
0.158428
0.195761
0.227268
0.284207
0.309352
0.385911
0.0901081
0.0960045
0.0728744
0.050867
0.0298799
0.0127565
0.00625627
0.00429984
0.00411808
0.004088
0.00404823
0.00489997
0.00642007
0.00824017
0.0107236
0.0143316
0.0192173
0.0256407
0.0341553
0.0453876
0.060162
0.0795971
0.105182
0.138929
0.182357
0.239733
0.275626
0.363601
0.190341
0.28436
-0.0580124
0.242905
0.232486
0.104432
0.0409345
0.013802
0.00515324
0.00271543
0.00295848
0.0034031
0.00363791
0.00435083
0.0055789
0.00718166
0.00943734
0.0126858
0.0171202
0.0230589
0.0310386
0.0417706
0.0562506
0.0757725
0.10273
0.139699
0.195486
0.288643
0.394199
0.787125
0.253694
1.3695
-0.258595
0.0320283
0.117341
0.102316
0.0495072
0.0186727
0.00732805
0.00285409
0.00225481
0.00259026
0.00293019
0.003495
0.00444819
0.00580958
0.00772904
0.0104465
0.0141899
0.0192775
0.0262233
0.0357181
0.048828
0.0667829
0.0925098
0.12568
0.183963
0.252947
0.432735
1.22928
1.18325
13.469
0.0633456
0.0378195
0.0168418
0.00964735
-0.000208554
0.00167972
0.00411111
0.00231895
0.00112329
0.00150812
0.00202686
0.00241467
0.00303448
0.00405754
0.00550029
0.00747356
0.0102038
0.0139784
0.0191837
0.0263966
0.036468
0.0505894
0.0710539
0.0973989
0.146465
0.138712
0.298153
-0.157673
-0.514379
22.6265
0.0980676
0.077928
0.0716474
0.0224559
-0.0108953
-0.00533144
0.00271191
0.00111202
-0.000573881
0.000207729
0.0010382
0.00119967
0.00136381
0.0019338
0.00275507
0.00377049
0.00516802
0.00713978
0.00985917
0.0136146
0.0187837
0.0261441
0.0358811
0.0514874
0.0685982
0.0983816
0.155162
-0.186067
-0.443701
3.08903
0.0175959
0.0300719
0.0020508
-0.00583527
-0.00567547
0.0110476
0.0139563
0.00805456
0.00487432
0.00403169
0.00330012
0.00274353
0.00235813
0.00174702
0.000894705
-0.000132879
-0.00164653
-0.00406162
-0.00775801
-0.01327
-0.0213052
-0.0326192
-0.0478179
-0.0671665
-0.0901404
-0.114995
-0.138104
-0.15414
-0.157024
-0.14233
-0.0717593
0.0345556
0.00836297
0.000288452
-0.000765662
0.00798198
0.0115188
0.00941509
0.0083592
0.00782637
0.00732037
0.00839585
0.0104903
0.0126748
0.0155162
0.0197539
0.025384
0.0325336
0.0416278
0.0529477
0.0667596
0.0832195
0.102052
0.122579
0.143651
0.162914
0.176582
0.180992
0.172172
0.148442
-0.00990531
0.0140565
-0.0295972
0.0138375
0.000249634
0.000334475
0.00798093
0.00864293
0.00784352
0.00698353
0.00610614
0.00677702
0.00839827
0.0100609
0.0121683
0.0153178
0.0195443
0.0249468
0.0317986
0.0403908
0.0510286
0.063806
0.0787789
0.0959451
0.114639
0.133994
0.150491
0.160775
0.156455
0.137216
0.111142
0.0108731
-0.00191245
0.0381554
0.00672635
0.000778969
0.00696604
0.00840699
0.00792737
0.00704922
0.00634309
0.00717941
0.00900128
0.0109557
0.0134979
0.0172263
0.0222938
0.0288657
0.0373329
0.0482359
0.0620115
0.079149
0.099993
0.124857
0.153425
0.185923
0.218036
0.253786
0.26631
0.254746
0.0041275
-0.0269216